72
Lattice="3.79391177 -6.57119781 -5.8e-07 3.79390164 6.57119196 6.3e-07 9e-08 1.28e-06 13.66754122" Properties=species:S:1:pos:R:3:force:R:3 energy=-575.34911815 config_type=Graphite kpoints="2 2 2" kpoints_density="2.41572115 2.41571792 4.35133436" virial="-115.74851837 0.04720341 -0.00241367 0.04720341 -115.66280744 0.00149945 -0.00241367 0.00149945 -2.40129923" cutoff=-1.0 nneightol=1.2 pbc="T T T"
C        0.42458070      -0.00193387       1.70599849      -0.18648385      -0.03696626       0.02678440
C        4.21323506      -5.11283838       5.12287310       0.08250470       0.18295082       0.04714163
C        4.21173111      -3.65155537       1.70691964       0.18602288       0.17416808       0.06102580
C        2.95014288      -4.38221502       5.12472866      -0.06294895       0.04181944      -0.02532042
C        2.95512759      -4.37939394       1.70915312      -0.24715772      -0.12703993      -0.02077893
C        5.47953390       1.45575963      11.95592240       0.09242402       0.22619582       0.01588612
C        5.47726114       2.92133652       8.53818520       0.15845768       0.04863243       0.02392924
C        2.94966418      -4.37880649       8.53855080       0.02593198      -0.16625737       0.02889255
C        4.21308087       2.18929067      11.95540296       0.22245880       0.07799000       0.02246379
C        5.47997580       1.46141869       5.12435309      -0.04197363      -0.01960609      -0.01636223
C        5.48319306       2.92410715       1.70838501      -0.19497497      -0.20821386       0.02707383
C        4.21382208       2.19389039       5.12375423       0.14207496      -0.09780564       0.01080816
C        4.21212216       2.18606681       1.70819632       0.20455681       0.31793189       0.00257789
C        4.21706354      -0.73094715      11.95820809       0.02163370      -0.02854126       0.01440114
C        4.21387209       0.73241702       8.54614223      -0.03321440      -0.07984680      -0.07886596
C        4.21574152       2.19155071       8.54066086      -0.14973692      -0.03530418       0.02701380
C        2.95452890       0.00043307      11.95971581      -0.03461667      -0.01556213      -0.02550077
C        2.95400592      -4.38554973      11.96251849      -0.25412148       0.20785820      -0.04532273
C        4.21475423      -5.11147665      11.96192088       0.13058974       0.02700338       0.00232324
C        5.48332539       0.00351156      11.95495256      -0.09383437      -0.30275649       0.04014376
C        5.47607681       0.00109305       8.53884849       0.08237973      -0.11129788       0.08641460
C        6.74237433      -0.72727152       5.12433212       0.03253175      -0.08205318      -0.00678668
C        6.74787625       0.72828463       1.70770759      -0.11663226       0.04187521       0.00578623
C        5.47794980       0.00032173       5.12097516       0.07718415       0.10523521       0.06084729
C        5.47769017      -0.00212892       1.71120804       0.26233057       0.13392961      -0.00770016
C        4.21717173      -3.65305093       8.53907981      -0.13818235       0.03647994       0.04443165
C        5.48400664      -2.91972621      11.95642223      -0.31974804      -0.14706989       0.07827549
C        4.21484868      -2.19492546      11.96338440       0.00310448       0.25290022      -0.07412122
C        4.21317938      -2.19289679       8.54601061       0.11168606       0.03188252      -0.10415693
C        5.48043904      -2.92259675       5.12888388      -0.19808609       0.22447810      -0.07711045
C        5.48436587      -1.45686577       1.71051688      -0.27383975      -0.24468151      -0.00497097
C        4.21226271      -2.18771789       5.12652670       0.10382160      -0.09790525      -0.00283601
C        4.21180761      -2.18867438       1.71258784       0.22553172      -0.00106279      -0.05137818
C        5.47803821      -1.46318977       8.54241148       0.08481682       0.11408599       0.01957337
C        2.94645237      -0.00140659       8.54442975       0.20829931       0.11858256      -0.00475798
C        4.21574750      -0.72793273       5.12610560      -0.15034756      -0.10234996      -0.01701924
C        4.21572628       0.72899699       1.71286474      -0.14059178       0.03002831      -0.02653168
C        2.94616478       2.91860446       8.54115268       0.28217488       0.12448533       0.01592443
C        1.68492137       2.19286945      11.96157589       0.16396029      -0.10334189      -0.04561185
C        1.68782286       2.18679827       8.54070704      -0.09156639       0.08631616       0.02471694
C        2.95384695       1.46445785       5.12451763      -0.28738716      -0.11707708       0.00564905
C        2.94668120       2.92449233       1.70502209       0.11257306      -0.33367585       0.05332755
C        1.68335839       2.19425862       5.12408306       0.15490899      -0.22131087       0.01898422
C        2.95464660       1.46333928      11.95744768      -0.25403327      -0.11415880       0.01615784
C        1.68336990       2.19334964       1.71098475      -0.03226450      -0.08702515      -0.04805911
C        1.68873205       0.72932912       8.54622408      -0.25788046      -0.09478745      -0.04574732
C        0.42558710       0.00083888      11.96018678      -0.12194397      -0.15022885      -0.00284075
C        0.41729019      -0.00360343       8.54479383       0.23224691       0.22710012       0.02341956
C        1.68492605      -0.72799242       5.12610818       0.05442765      -0.04829584       0.04764750
C        1.68241466       0.73029781       1.71122312       0.17717831       0.10842794      -0.01750016
C        0.42195435       0.00350135       5.12878366      -0.10760366      -0.16201951      -0.06838992
C        1.68905364      -0.72993712      11.95817582      -0.03015168       0.01072961       0.03312069
C        2.95111064       4.37646428       1.70625094       0.05698213       0.29234537      -0.00408639
C        2.94610494       4.38201378       5.12241610       0.26159659      -0.03304923       0.05762265
C        4.21837121       5.10682191       1.70518932      -0.12800206       0.13109290       0.04119871
C        2.94807326      -0.00040507       5.12768754       0.12905283       0.17972553      -0.03417040
C        2.94805867       0.00343245       1.71258667       0.08384715      -0.13302748      -0.01254390
C        2.94742069      -2.91842822      11.96040603       0.17387361      -0.28201905       0.03381169
C        2.94943020      -1.45870180       8.53832323       0.05894464      -0.12718848       0.08799666
C        1.68389672      -2.19223037      11.95985132       0.08967524       0.13578565      -0.01335851
C        1.68901498      -2.18825933       8.54151958      -0.11863999      -0.04295165      -0.02197625
C        2.94761872      -2.91995292       5.12305439       0.18133664       0.00391673       0.05802587
C        2.95180609      -1.45944649       1.71014538      -0.07773760       0.14344763       0.04548077
C        1.68934377      -2.18985546       5.12843577      -0.23112002       0.01279443      -0.06352880
C        1.68613384      -2.18680563       1.71250268       0.08859780      -0.20162882      -0.07527718
C        4.21729610       3.65052944      11.95874440      -0.21888215      -0.05989888      -0.00583973
C        4.21886351       5.11436030       8.54597644      -0.11517494      -0.20265467      -0.02913936
C        2.94586199       4.37825458      11.95955111       0.36925929       0.13327423      -0.02307572
C        2.95476076       4.38180578       8.54475530      -0.23102351      -0.07174699      -0.02640067
C        4.21710250       3.64923875       5.12424585      -0.13959869       0.22966504       0.00911719
C        6.74382125       0.72712683       8.54486706      -0.10919205       0.14499620      -0.07313020
C        6.74550132      -0.73257856      11.95957390       0.05971542       0.13227641      -0.01779854
72
Lattice="3.79391177 -6.57119781 -5.8e-07 3.79390164 6.57119196 6.3e-07 9e-08 1.28e-06 13.66754122" Properties=species:S:1:pos:R:3:force:R:3 energy=-575.06192493 config_type=Graphite kpoints="2 2 2" kpoints_density="2.41572115 2.41571792 4.35133436" virial="-115.03255933 -0.02255049 -0.00341056 -0.02255049 -114.47718661 0.01243438 -0.00341056 0.01243438 -2.32180758" cutoff=-1.0 nneightol=1.2 pbc="T T T"
C        0.42568818      -0.00525515       1.70115417      -0.16442628      -0.08448713       0.07969532
C        4.20815461      -5.12090695       5.11809807       0.24794967       0.81874205       0.13656363
C        4.20675977      -3.65333044       1.70403169       0.31101339       0.48261126       0.17914202
C        2.94481859      -4.38807574       5.12343380       0.08123926       0.29635448      -0.07376295
C        2.96178551      -4.37779018       1.71051331      -0.53765527      -0.27663602      -0.05973738
C        5.48113884       1.44477134      11.94961278       0.09932579       0.80133106       0.04969774
C        5.47734848       2.92052984       8.53018162       0.11636495       0.25800878       0.07248139
C        2.94207223      -4.37320066       8.53130727       0.38240995      -0.56901516       0.08730911
C        4.20488152       2.18696283      11.94807647       0.89010111       0.26882805       0.06615693
C        5.48506191       1.46387132       5.12237444      -0.44711898      -0.05704421      -0.04857916
C        5.49074642       2.93323861       1.70834209      -0.69441077      -0.73349924       0.07738105
C        4.20864198       2.20540188       5.12063448       0.52374158      -0.57956854       0.03228152
C        4.20202488       2.17951513       1.70768652       0.82697969       0.81526485       0.00761964
C        4.21749980      -0.73227513      11.95646015       0.18219323      -0.10200542       0.04114874
C        4.21126890       0.74186003       8.55378198      -0.13338986      -0.51554912      -0.23186717
C        4.21512140       2.18859216       8.53766220      -0.32590951       0.19959623       0.07769695
C        2.96302737      -0.00208390      11.96091405      -0.15377085       0.14070815      -0.07519726
C        2.96064507      -4.39754394      11.96927927      -0.74086342       0.74300625      -0.13533057
C        4.21091669      -5.11209315      11.96756776       0.50451042       0.02348828       0.00379826
C        5.49038831       0.01227155      11.94675135      -0.27666230      -1.01527873       0.12027577
C        5.47208740       0.00535217       8.53236570       0.05670639      -0.42444618       0.25511773
C        6.73568206      -0.71842859       5.12232736       0.19079676      -0.40161186      -0.01856117
C        6.75873020       0.72536116       1.70624188      -0.68033832       0.07150116       0.01908901
C        5.47802553       0.00118873       5.11241996      -0.00424600       0.26522125       0.17933865
C        5.47018965      -0.00864538       1.71674080       0.97138294       0.55045040      -0.02742595
C        4.22116694      -3.65252458       8.53293789      -0.45856333      -0.18817125       0.12904561
C        5.49293625      -2.92165072      11.95127011      -1.04369155      -0.24232264       0.22993243
C        4.20924414      -2.20351210      11.97177299       0.27874586       0.71347911      -0.22049202
C        4.20832417      -2.20294375       8.55333792       0.37605930       0.38356182      -0.30509414
C        5.48582256      -2.92553493       5.13579173      -0.83194620       0.59434440      -0.22512966
C        5.49395090      -1.44820803       1.71465049      -0.91183730      -0.84535728      -0.01478143
C        4.20384345      -2.17776495       5.12890444       0.42369077      -0.55021278      -0.00811056
C        4.20128790      -2.18443891       1.72072577       0.92499048      -0.04661627      -0.15092437
C        5.47949375      -1.47114992       8.54286674      -0.07272790       0.44252706       0.05785193
C        2.93341518      -0.00124802       8.54887853       0.90462735       0.14177984      -0.01413231
C        4.21466146      -0.72887833       5.12761067      -0.35790335       0.03201327      -0.04895606
C        4.21740972       0.72600881       1.72164409      -0.55448419       0.11623477      -0.07746272
C        2.93417999       2.91282261       8.53908519       0.96671343       0.47805831       0.04869343
C        1.68404395       2.20035280      11.96640723       0.39721273      -0.45154250      -0.13372479
C        1.69426078       2.18272458       8.53777467      -0.45211521       0.08473399       0.07298994
C        2.95653557       1.47567770       5.12290021      -0.68038313      -0.47685528       0.01637787
C        2.94391866       2.93168760       1.69832185      -0.04947775      -0.98513206       0.15893241
C        1.68229791       2.20077883       5.12163411       0.22646149      -0.59919846       0.05519513
C        2.96392114       1.47239721      11.95418100      -0.87838214      -0.54212295       0.05155487
C        1.67391078       2.19602636       1.71596247       0.23941140      -0.05958128      -0.14142186
C        1.69777529       0.72451388       8.55411900      -1.00644096      -0.04145450      -0.13336214
C        0.42860845       0.00152301      11.96236074      -0.06156253      -0.36298628      -0.00910052
C        0.40935088      -0.01501778       8.55001893       0.63614506       0.93425729       0.06483072
C        1.68816604      -0.72382996       5.12779612      -0.20027340      -0.12957326       0.13710291
C        1.67771446       0.73396809       1.71674153       0.25381595       0.08723438      -0.05339353
C        0.41968585       0.01479612       5.13551288      -0.11843273      -0.76668466      -0.19815618
C        1.69722446      -0.73263572      11.95641544      -0.25279821       0.18386066       0.09824668
C        2.95108580       4.36833275       1.70184521       0.28005958       0.87264447      -0.01028312
C        2.93407215       4.38089543       5.11671127       0.91997409       0.10539116       0.16904232
C        4.22526114       5.09842175       1.69879209      -0.55305238       0.39258948       0.11856464
C        2.93933142      -0.00385073       5.13226999       0.59433636       0.64052445      -0.10198170
C        2.94196466       0.00924862       1.72083626       0.38564487      -0.29539381      -0.03609672
C        2.94397798      -2.91197169      11.96311179       0.29834393      -0.91559566       0.09795111
C        2.94326184      -1.45853962       8.53077642       0.37414671      -0.19576641       0.25781689
C        1.68069280      -2.19222794      11.96131703       0.22087584       0.19954184      -0.03795030
C        1.69787674      -2.18158214       8.54007301      -0.52823802      -0.28021133      -0.06318767
C        2.93969094      -2.91561494       5.11867052       0.60417349      -0.16228514       0.16867170
C        2.95840517      -1.45669665       1.71366887      -0.60482610       0.32235151       0.13211472
C        1.69881959      -2.18875716       5.13448119      -0.84150274       0.04485414      -0.18543322
C        1.68280745      -2.18316617       1.72043395       0.55691237      -0.38408348      -0.21788343
C        4.21701729       3.65047839      11.95801004      -0.42861023      -0.17942886      -0.01905734
C        4.22610034       5.12555098       8.55340857      -0.39890671      -0.88964798      -0.08838848
C        2.93879843       4.37026335      11.96042283       0.97539653       0.57820672      -0.06598021
C        2.95657956       4.38598349       8.54977484      -0.33285452      -0.31868725      -0.07906143
C        4.21867458       3.64241844       5.12209048      -0.32946942       0.92276936       0.02732909
C        6.73771755       0.71950793       8.54998597      -0.10275263       0.50207450      -0.21458779
C        6.75012101      -0.73351575      11.96048621      -0.01242851       0.15990819      -0.05244256
72
Lattice="3.79391177 -6.57119781 -5.8e-07 3.79390164 6.57119196 6.3e-07 9e-08 1.28e-06 13.66754122" Properties=species:S:1:pos:R:3:force:R:3 energy=-574.17142548 config_type=Graphite kpoints="2 2 2" kpoints_density="2.41572115 2.41571792 4.35133436" virial="-111.94233077 -0.67602487 0.03891851 -0.67602487 -110.27920177 0.01745838 0.03891851 0.01745838 -2.29956997" cutoff=-1.0 nneightol=1.2 pbc="T T T"
C        0.41830278      -0.01006033       1.69643914       0.59633787       0.03615689       0.13591731
C        4.20133409      -5.13347067       5.11371461       0.48662890       1.76179816       0.21144779
C        4.20909772      -3.65209506       1.70162128      -0.27100063       0.53876356       0.28337947
C        2.93499443      -4.39836701       5.12184303       0.56109510       0.85006046      -0.11542954
C        2.96019997      -4.37850052       1.71170375      -0.12855712      -0.19778525      -0.09351691
C        5.48645635       1.43007111      11.94343751      -0.09723039       1.65228482       0.08558204
C        5.48526196       2.91665165       8.52234342      -0.43328240       0.59834470       0.12207297
C        2.92807821      -4.36627034       8.52430116       1.09294334      -1.03224241       0.14439859
C        4.19253258       2.18550942      11.94094201       1.78772309       0.44948659       0.10473838
C        5.49594666       1.46707878       5.12031638      -1.19332034      -0.17319388      -0.07750564
C        5.50254428       2.94226880       1.70850610      -1.48734121      -1.25012321       0.11537618
C        4.20292907       2.22216520       5.11762339       0.81108984      -1.43556293       0.05277270
C        4.18711915       2.17511889       1.70714050       1.75568892       1.11165091       0.01565680
C        4.21201639      -0.73384932      11.95480842       0.64312942      -0.15271185       0.06108843
C        4.20825709       0.75764634       8.56077648      -0.17100700      -1.36596500      -0.36960522
C        4.21302520       2.17826540       8.53493990      -0.33951668       0.92066222       0.11601488
C        2.97450258      -0.00951357      11.96200731      -0.49418855       0.52743737      -0.12067100
C        2.96828503      -4.41219035      11.97580347      -1.24834268       1.36906347      -0.21961024
C        4.20213220      -5.11251804      11.97320822       1.14375508      -0.04354925      -0.00053283
C        5.49894064       0.02406007      11.93887146      -0.50090974      -1.96132567       0.19785435
C        5.47507514       0.01175271       8.52659308      -0.35752990      -0.81991013       0.40874928
C        6.72498866      -0.70493601       5.12028530       0.63581669      -0.97574434      -0.02420554
C        6.77484213       0.72363601       1.70479121      -1.70389971       0.06044525       0.03623530
C        5.48596367       0.00213905       5.10433410      -0.60542314       0.38330388       0.28806431
C        5.45968494      -0.01590325       1.72223884       1.88240977       1.01237516      -0.05489540
C        4.22453388      -3.64455214       8.52716677      -0.71607013      -0.86802562       0.20034950
C        5.50113125      -2.93135941      11.94671472      -1.62271958       0.22573018       0.36620847
C        4.19704272      -2.20982201      11.97960503       0.93353423       0.99895860      -0.35608001
C        4.20434904      -2.21977211       8.55983492       0.59499098       1.16307983      -0.48202939
C        5.49553420      -2.92498546       5.14210244      -1.61303837       0.66530734      -0.35611868
C        5.50665817      -1.43991289       1.71874283      -1.76817865      -1.40214750      -0.02299034
C        4.19455846      -2.16227270       5.13125294       0.72843397      -1.33030469      -0.01410726
C        4.18666811      -2.18128440       1.72841171       1.99831908      -0.07755515      -0.23711162
C        5.48835086      -1.48139245       8.54350201      -0.65073457       0.87985255       0.09166869
C        2.91655396       0.00360489       8.55336668       1.90628478      -0.23373102      -0.02699898
C        4.20915575      -0.73727158       5.12896034      -0.25403542       0.68421767      -0.08064499
C        4.22279138       0.72441870       1.73022908      -1.28891567       0.13465629      -0.12291683
C        2.91908495       2.90500907       8.53719168       1.82733121       0.95159193       0.08213808
C        1.68745038       2.21296338      11.97091314       0.34511743      -1.16765925      -0.20738137
C        1.70521481       2.18355760       8.53506262      -1.14498159      -0.20454664       0.11885928
C        2.95150453       1.49089502       5.12128813      -0.56305581      -1.00922347       0.02546755
C        2.94884933       2.93611651       1.69203861      -0.75447521      -1.43669409       0.25933487
C        1.68980692       2.20368769       5.11932416      -0.20086294      -0.70332028       0.08965531
C        2.97417925       1.48494766      11.95102749      -1.57159978      -1.19883043       0.09008881
C        1.65860464       2.19561344       1.72059468       1.08283695       0.14232967      -0.22529227
C        1.71005887       0.71488529       8.56163915      -1.98574041       0.44327052      -0.21172816
C        0.42323598       0.00058031      11.96452076       0.45689257      -0.42708659      -0.01618215
C        0.40426762      -0.03100950       8.55538536       0.79005453       1.98785935       0.09159122
C        1.69828382      -0.71954811       5.12986184      -0.88125321      -0.25824290       0.21200762
C        1.68078255       0.74095215       1.72215278      -0.34936757      -0.22211533      -0.09698480
C        0.41393993       0.03061109       5.14171685       0.05419559      -1.70822050      -0.30747473
C        1.70819819      -0.74188692      11.95490886      -0.63049317       0.71467881       0.15888554
C        2.94654579       4.36237741       1.69740052       0.87385301       1.29917305      -0.01433040
C        2.92098894       4.37400528       5.11136275       1.59906652       0.59321310       0.26731478
C        4.23558144       5.09264349       1.69271195      -1.38103091       0.52483094       0.18224114
C        2.92796507      -0.01081520       5.13643873       1.21508642       1.23581739      -0.16573335
C        2.93137340       0.01312347       1.72897692       1.13208014      -0.28346843      -0.05450576
C        2.94615958      -2.90343564      11.96608599       0.03633719      -1.52178195       0.15073226
C        2.93216493      -1.46317552       8.52392434       1.07416501       0.08063199       0.41275465
C        1.68113202      -2.18415187      11.96272123       0.16306219      -0.26172541      -0.05805036
C        1.71139378      -2.17204505       8.53842621      -1.27626754      -0.74483542      -0.09432033
C        2.92897022      -2.90641506       5.11476475       1.21486627      -0.62503485       0.26351567
C        2.97026898      -1.45196034       1.71752435      -1.63858514       0.33711920       0.20519869
C        1.71304450      -2.18803532       5.14003582      -1.73603940       0.17343215      -0.29140876
C        1.67524346      -2.18355925       1.72779242       1.44899817      -0.32583943      -0.33832408
C        4.20784279       3.64999121      11.95718520      -0.05653729      -0.18983223      -0.03267383
C        4.23226664       5.14152397       8.56055451      -0.64562918      -1.95824719      -0.14960154
C        2.93954109       4.35890826      11.96120639       1.07143941       1.14384210      -0.10464152
C        2.94976156       4.39287083       8.55457980       0.06776196      -0.69886011      -0.12821457
C        4.21564045       3.63175221       5.11995001      -0.25762962       1.86519272       0.04537830
C        6.72420385       0.71057894       8.55454983       0.37095431       0.90505227      -0.33623602
C        6.75969990      -0.72819973      11.96129191      -0.36348924      -0.15622871      -0.08468479
72
Lattice="3.79391177 -6.57119781 -5.8e-07 3.79390164 6.57119196 6.3e-07 9e-08 1.28e-06 13.66754122" Properties=species:S:1:pos:R:3:force:R:3 energy=-572.29169969 config_type=Graphite kpoints="2 2 2" kpoints_density="2.41572115 2.41571792 4.35133436" virial="-104.23242846 -1.94000853 0.14166542 -1.94000853 -101.45820653 -0.00967582 0.14166542 -0.00967582 -2.45496731" cutoff=-1.0 nneightol=1.2 pbc="T T T"
C        0.40525137      -0.01733240       1.69200361       1.85315215       0.32165103       0.19435714
C        4.19405784      -5.14604215       5.10991681       0.72719295       2.73390549       0.26474029
C        4.21981846      -3.64609964       1.69998829      -1.58299745       0.30642486       0.36307217
C        2.92267293      -4.41063706       5.11984306       1.34983520       1.62424553      -0.14600967
C        2.94836825      -4.38230675       1.71267155       1.02920886       0.10636196      -0.12044605
C        5.49419920       1.41514043      11.93749267      -0.39741921       2.56448530       0.12102387
C        5.49789886       2.91123158       8.51479976      -1.35720317       1.02678214       0.17048819
C        2.91128292      -4.35987058       8.51769140       2.00203428      -1.50764561       0.19663557
C        4.18000894       2.18550924      11.93407161       2.62748378       0.58099816       0.13633603
C        5.50924567       1.47101899       5.11812985      -2.17073552      -0.42367827      -0.10054907
C        5.51749864       2.94748185       1.70898050      -2.49320606      -1.53391291       0.13558014
C        4.19829131       2.24009497       5.11481252       0.90221552      -2.44306148       0.07034803
C        4.17089542       2.17236596       1.70658847       2.79589899       1.19333043       0.02933328
C        4.20147430      -0.73552661      11.95329802       1.43027466      -0.25296216       0.07040974
C        4.20422609       0.77591512       8.56672705      -0.10617653      -2.52370567      -0.47827526
C        4.20995367       2.16405033       8.53259988      -0.24680742       2.02141838       0.13345672
C        2.98853097      -0.02085080      11.96282600      -1.14308508       1.12057024      -0.15641092
C        2.97590229      -4.42747364      11.98182238      -1.75041525       2.03096346      -0.29072129
C        4.19001625      -5.11266266      11.97883050       1.97780608      -0.23125837      -0.01192591
C        5.50870019       0.03506964      11.93154430      -0.76667770      -2.89664467       0.26795711
C        5.48341516       0.01858510       8.52197468      -1.16405382      -1.27471244       0.53132257
C        6.71202039      -0.68915068       5.11820086       1.36073715      -1.72188957      -0.01917203
C        6.79237282       0.72402521       1.70337867      -2.96511156       0.00411228       0.05736324
C        5.49894016       0.00308799       5.09702621      -1.61609057       0.53869861       0.37724234
C        5.44831161      -0.02073103       1.72765187       2.81945956       1.28870890      -0.08895554
C        4.22587058      -3.63238932       8.52197228      -0.82225185      -1.90817932       0.24842109
C        5.50585941      -2.94719855      11.94313437      -1.79527009       1.29572539       0.47281483
C        4.18080893      -2.21326721      11.98646341       1.83135580       1.11809669      -0.46737640
C        4.20243754      -2.23982556       8.56496626       0.69136071       2.26636013      -0.61612936
C        5.50603611      -2.92014052       5.14745834      -2.37875819       0.35516817      -0.45990247
C        5.52089878      -1.43556901       1.72278869      -2.73151231      -1.64804243      -0.02657656
C        4.18608980      -2.14468916       5.13358353       0.94716190      -2.34105720      -0.02236223
C        4.17201900      -2.18075054       1.73540102       3.15775152      -0.01501857      -0.30055277
C        5.50156031      -1.49209766       8.54442607      -1.55444361       1.39503202       0.11558062
C        2.90112353       0.01108818       8.55787082       2.94042427      -0.88290539      -0.04594697
C        4.20009500      -0.75002797       5.13002135       0.08250851       1.74723574      -0.11205327
C        4.23213823       0.72591292       1.73849248      -2.25262526       0.04101541      -0.15970510
C        2.90431152       2.89726079       8.53560065       2.72378706       1.45326279       0.11370987
C        1.69546025       2.22811530      11.97490188      -0.02353244      -2.20293210      -0.25312125
C        1.71772973       2.18772051       8.53271658      -2.06663189      -0.69544308       0.15932704
C        2.93919834       1.50779910       5.11968779       0.16909458      -1.67439272       0.03266129
C        2.95871853       2.93733066       1.68644572      -1.78417027      -1.55610853       0.34639716
C        1.70378705       2.20206177       5.11724382      -1.12739354      -0.36725803       0.12292554
C        2.98218442       1.49873763      11.94810004      -2.08501737      -1.94787133       0.12599835
C        1.63912031       2.19447683       1.72467867       2.37488215       0.32044007      -0.29037440
C        1.72043210       0.70295607       8.56854563      -2.94154622       1.21172695      -0.27557513
C        0.41156494      -0.00269398      11.96660123       1.34502627      -0.21407369      -0.02147245
C        0.40295658      -0.04629259       8.56092932       0.66407029       3.09283097       0.09961914
C        1.71208586      -0.71524669       5.13253111      -1.83988064      -0.48150057       0.26540651
C        1.69107488       0.74843410       1.72735027      -1.52033967      -0.61156239      -0.14979257
C        0.40583579       0.04640976       5.14711006       0.32591181      -2.71072392      -0.38658266
C        1.72004543      -0.75587845      11.95383801      -1.01322549       1.54341239       0.20890559
C        2.93652711       4.35893681       1.69294094       1.81419046       1.46323149      -0.01812420
C        2.90954107       4.36345865       5.10666330       2.18599588       1.32502820       0.34199792