100
Lattice="12.321915 0.0 0.0 6.1609575 10.67109141 0.0 0.0 0.0 20.0" Properties=species:S:1:pos:R:3:force:R:3 energy=-779.2201163 config_type=Graphite_Layer_Sep kpoints="2 2 1" kpoints_density="3.92292741 3.92292741 3.18369946" virial="-9.50739811 0.0 -0.0 0.0 -9.50739809 0.0 -0.0 0.0 161.53438015" cutoff=-1.0 nneightol=1.2 pbc="T T T"
C        0.00000000       0.00000000       0.00000000      -0.00000000      -0.00000000      -1.29826181
C        2.46438300       0.00000000       0.00000000      -0.00000000      -0.00000000      -1.29826181
C        4.92876600       0.00000000       0.00000000       0.00000000      -0.00000000      -1.29826181
C        7.39314900       0.00000000       0.00000000      -0.00000000       0.00000000      -1.29826181
C        9.85753200       0.00000000       0.00000000      -0.00000000       0.00000000      -1.29826181
C        1.23219150       2.13421828       0.00000000       0.00000000      -0.00000000      -1.29826181
C        3.69657450       2.13421828       0.00000000       0.00000000       0.00000000      -1.29826181
C        6.16095750       2.13421828       0.00000000      -0.00000000      -0.00000000      -1.29826181
C        8.62534050       2.13421828       0.00000000      -0.00000000       0.00000000      -1.29826181
C       11.08972350       2.13421828       0.00000000      -0.00000000      -0.00000000      -1.29826181
C        2.46438300       4.26843656       0.00000000       0.00000000      -0.00000000      -1.29826181
C        4.92876600       4.26843656       0.00000000      -0.00000000      -0.00000000      -1.29826181
C        7.39314900       4.26843656       0.00000000      -0.00000000       0.00000000      -1.29826181
C        9.85753200       4.26843656       0.00000000      -0.00000000       0.00000000      -1.29826181
C       12.32191500       4.26843656       0.00000000      -0.00000000      -0.00000000      -1.29826181
C        3.69657450       6.40265485       0.00000000      -0.00000000       0.00000000      -1.29826181
C        6.16095750       6.40265485       0.00000000      -0.00000000       0.00000000      -1.29826181
C        8.62534050       6.40265485       0.00000000       0.00000000       0.00000000      -1.29826181
C       11.08972350       6.40265485       0.00000000      -0.00000000      -0.00000000      -1.29826181
C       13.55410650       6.40265485       0.00000000       0.00000000      -0.00000000      -1.29826181
C        4.92876600       8.53687313       0.00000000      -0.00000000       0.00000000      -1.29826181
C        7.39314900       8.53687313       0.00000000       0.00000000      -0.00000000      -1.29826181
C        9.85753200       8.53687313       0.00000000       0.00000000      -0.00000000      -1.29826181
C       12.32191500       8.53687313       0.00000000       0.00000000      -0.00000000      -1.29826181
C       14.78629800       8.53687313       0.00000000       0.00000000      -0.00000000      -1.29826181
C        1.23219156       0.71140613       0.00000000      -0.00000000       0.00000000      -1.29826181
C        3.69657456       0.71140613       0.00000000      -0.00000000      -0.00000000      -1.29826181
C        6.16095756       0.71140613       0.00000000      -0.00000000       0.00000000      -1.29826181
C        8.62534056       0.71140613       0.00000000       0.00000000       0.00000000      -1.29826181
C       11.08972356       0.71140613       0.00000000      -0.00000000       0.00000000      -1.29826181
C        2.46438306       2.84562441       0.00000000      -0.00000000       0.00000000      -1.29826181
C        4.92876606       2.84562441       0.00000000      -0.00000000       0.00000000      -1.29826181
C        7.39314906       2.84562441       0.00000000       0.00000000       0.00000000      -1.29826181
C        9.85753206       2.84562441       0.00000000      -0.00000000       0.00000000      -1.29826181
C       12.32191506       2.84562441       0.00000000      -0.00000000      -0.00000000      -1.29826181
C        3.69657456       4.97984269       0.00000000      -0.00000000      -0.00000000      -1.29826181
C        6.16095756       4.97984269       0.00000000       0.00000000       0.00000000      -1.29826181
C        8.62534056       4.97984269       0.00000000      -0.00000000       0.00000000      -1.29826181
C       11.08972356       4.97984269       0.00000000      -0.00000000      -0.00000000      -1.29826181
C       13.55410656       4.97984269       0.00000000       0.00000000       0.00000000      -1.29826181
C        4.92876606       7.11406098       0.00000000      -0.00000000       0.00000000      -1.29826181
C        7.39314906       7.11406098       0.00000000      -0.00000000       0.00000000      -1.29826181
C        9.85753206       7.11406098       0.00000000      -0.00000000       0.00000000      -1.29826181
C       12.32191506       7.11406098       0.00000000      -0.00000000       0.00000000      -1.29826181
C       14.78629806       7.11406098       0.00000000       0.00000000       0.00000000      -1.29826181
C        6.16095756       9.24827926       0.00000000      -0.00000000       0.00000000      -1.29826181
C        8.62534056       9.24827926       0.00000000      -0.00000000       0.00000000      -1.29826181
C       11.08972356       9.24827926       0.00000000      -0.00000000       0.00000000      -1.29826181
C       13.55410656       9.24827926       0.00000000       0.00000000      -0.00000000      -1.29826181
C       16.01848956       9.24827926       0.00000000      -0.00000000       0.00000000      -1.29826181
C        0.00000000       0.00000000       2.50000000      -0.00000000      -0.00000000       1.29826181
C        2.46438300       0.00000000       2.50000000      -0.00000000      -0.00000000       1.29826181
C        4.92876600       0.00000000       2.50000000      -0.00000000       0.00000000       1.29826181
C        7.39314900       0.00000000       2.50000000      -0.00000000       0.00000000       1.29826181
C        9.85753200       0.00000000       2.50000000      -0.00000000      -0.00000000       1.29826181
C        1.23219150       2.13421828       2.50000000      -0.00000000      -0.00000000       1.29826181
C        3.69657450       2.13421828       2.50000000      -0.00000000       0.00000000       1.29826181
C        6.16095750       2.13421828       2.50000000      -0.00000000       0.00000000       1.29826181
C        8.62534050       2.13421828       2.50000000      -0.00000000       0.00000000       1.29826181
C       11.08972350       2.13421828       2.50000000      -0.00000000       0.00000000       1.29826181
C        2.46438300       4.26843656       2.50000000      -0.00000000       0.00000000       1.29826181
C        4.92876600       4.26843656       2.50000000      -0.00000000       0.00000000       1.29826181
C        7.39314900       4.26843656       2.50000000      -0.00000000       0.00000000       1.29826181
C        9.85753200       4.26843656       2.50000000      -0.00000000      -0.00000000       1.29826181
C       12.32191500       4.26843656       2.50000000      -0.00000000      -0.00000000       1.29826181
C        3.69657450       6.40265485       2.50000000       0.00000000      -0.00000000       1.29826181
C        6.16095750       6.40265485       2.50000000      -0.00000000       0.00000000       1.29826181
C        8.62534050       6.40265485       2.50000000      -0.00000000      -0.00000000       1.29826181
C       11.08972350       6.40265485       2.50000000      -0.00000000      -0.00000000       1.29826181
C       13.55410650       6.40265485       2.50000000      -0.00000000       0.00000000       1.29826181
C        4.92876600       8.53687313       2.50000000      -0.00000000       0.00000000       1.29826181
C        7.39314900       8.53687313       2.50000000      -0.00000000      -0.00000000       1.29826181
C        9.85753200       8.53687313       2.50000000      -0.00000000      -0.00000000       1.29826181
C       12.32191500       8.53687313       2.50000000      -0.00000000       0.00000000       1.29826181
C       14.78629800       8.53687313       2.50000000      -0.00000000       0.00000000       1.29826181
C        1.23219156       0.71140613       2.50000000       0.00000000      -0.00000000       1.29826181
C        3.69657456       0.71140613       2.50000000       0.00000000      -0.00000000       1.29826181
C        6.16095756       0.71140613       2.50000000       0.00000000      -0.00000000       1.29826181
C        8.62534056       0.71140613       2.50000000       0.00000000      -0.00000000       1.29826181
C       11.08972356       0.71140613       2.50000000       0.00000000      -0.00000000       1.29826181
C        2.46438306       2.84562441       2.50000000       0.00000000      -0.00000000       1.29826181
C        4.92876606       2.84562441       2.50000000       0.00000000      -0.00000000       1.29826181
C        7.39314906       2.84562441       2.50000000       0.00000000      -0.00000000       1.29826181
C        9.85753206       2.84562441       2.50000000       0.00000000      -0.00000000       1.29826181
C       12.32191506       2.84562441       2.50000000       0.00000000      -0.00000000       1.29826181
C        3.69657456       4.97984269       2.50000000       0.00000000      -0.00000000       1.29826181
C        6.16095756       4.97984269       2.50000000       0.00000000      -0.00000000       1.29826181
C        8.62534056       4.97984269       2.50000000       0.00000000      -0.00000000       1.29826181
C       11.08972356       4.97984269       2.50000000       0.00000000       0.00000000       1.29826181
C       13.55410656       4.97984269       2.50000000       0.00000000      -0.00000000       1.29826181
C        4.92876606       7.11406098       2.50000000       0.00000000      -0.00000000       1.29826181
C        7.39314906       7.11406098       2.50000000       0.00000000      -0.00000000       1.29826181
C        9.85753206       7.11406098       2.50000000       0.00000000      -0.00000000       1.29826181
C       12.32191506       7.11406098       2.50000000       0.00000000      -0.00000000       1.29826181
C       14.78629806       7.11406098       2.50000000       0.00000000      -0.00000000       1.29826181
C        6.16095756       9.24827926       2.50000000       0.00000000      -0.00000000       1.29826181
C        8.62534056       9.24827926       2.50000000       0.00000000      -0.00000000       1.29826181
C       11.08972356       9.24827926       2.50000000       0.00000000       0.00000000       1.29826181
C       13.55410656       9.24827926       2.50000000       0.00000000      -0.00000000       1.29826181
C       16.01848956       9.24827926       2.50000000       0.00000000      -0.00000000       1.29826181
100
Lattice="12.321915 0.0 0.0 6.1609575 10.67109141 0.0 0.0 0.0 20.0" Properties=species:S:1:pos:R:3:force:R:3 energy=-784.73674797 config_type=Graphite_Layer_Sep kpoints="2 2 1" kpoints_density="3.92292741 3.92292741 3.18369946" virial="-5.77396349 0.0 0.0 0.0 -5.77396347 -0.0 0.0 -0.0 120.95528229" cutoff=-1.0 nneightol=1.2 pbc="T T T"
C        0.00000000       0.00000000       0.00000000       0.00000000       0.00000000      -0.93575334
C        2.46438300       0.00000000       0.00000000      -0.00000000       0.00000000      -0.93575334
C        4.92876600       0.00000000       0.00000000       0.00000000       0.00000000      -0.93575334
C        7.39314900       0.00000000       0.00000000      -0.00000000       0.00000000      -0.93575334
C        9.85753200       0.00000000       0.00000000       0.00000000       0.00000000      -0.93575334
C        1.23219150       2.13421828       0.00000000      -0.00000000       0.00000000      -0.93575334
C        3.69657450       2.13421828       0.00000000       0.00000000       0.00000000      -0.93575334
C        6.16095750       2.13421828       0.00000000       0.00000000       0.00000000      -0.93575334
C        8.62534050       2.13421828       0.00000000       0.00000000       0.00000000      -0.93575334
C       11.08972350       2.13421828       0.00000000       0.00000000       0.00000000      -0.93575334
C        2.46438300       4.26843656       0.00000000       0.00000000      -0.00000000      -0.93575334
C        4.92876600       4.26843656       0.00000000       0.00000000       0.00000000      -0.93575334
C        7.39314900       4.26843656       0.00000000       0.00000000       0.00000000      -0.93575334
C        9.85753200       4.26843656       0.00000000       0.00000000       0.00000000      -0.93575334
C       12.32191500       4.26843656       0.00000000      -0.00000000       0.00000000      -0.93575334
C        3.69657450       6.40265485       0.00000000       0.00000000       0.00000000      -0.93575334
C        6.16095750       6.40265485       0.00000000       0.00000000       0.00000000      -0.93575334
C        8.62534050       6.40265485       0.00000000       0.00000000       0.00000000      -0.93575334
C       11.08972350       6.40265485       0.00000000       0.00000000       0.00000000      -0.93575334
C       13.55410650       6.40265485       0.00000000       0.00000000      -0.00000000      -0.93575334
C        4.92876600       8.53687313       0.00000000       0.00000000       0.00000000      -0.93575334
C        7.39314900       8.53687313       0.00000000       0.00000000       0.00000000      -0.93575334
C        9.85753200       8.53687313       0.00000000       0.00000000       0.00000000      -0.93575334
C       12.32191500       8.53687313       0.00000000       0.00000000       0.00000000      -0.93575334
C       14.78629800       8.53687313       0.00000000      -0.00000000       0.00000000      -0.93575334
C        1.23219156       0.71140613       0.00000000      -0.00000000      -0.00000000      -0.93575334
C        3.69657456       0.71140613       0.00000000      -0.00000000      -0.00000000      -0.93575334
C        6.16095756       0.71140613       0.00000000      -0.00000000      -0.00000000      -0.93575334
C        8.62534056       0.71140613       0.00000000      -0.00000000      -0.00000000      -0.93575334
C       11.08972356       0.71140613       0.00000000      -0.00000000      -0.00000000      -0.93575334
C        2.46438306       2.84562441       0.00000000      -0.00000000      -0.00000000      -0.93575334
C        4.92876606       2.84562441       0.00000000      -0.00000000      -0.00000000      -0.93575334
C        7.39314906       2.84562441       0.00000000      -0.00000000      -0.00000000      -0.93575334
C        9.85753206       2.84562441       0.00000000      -0.00000000      -0.00000000      -0.93575334
C       12.32191506       2.84562441       0.00000000      -0.00000000      -0.00000000      -0.93575334
C        3.69657456       4.97984269       0.00000000      -0.00000000      -0.00000000      -0.93575334
C        6.16095756       4.97984269       0.00000000      -0.00000000      -0.00000000      -0.93575334
C        8.62534056       4.97984269       0.00000000      -0.00000000      -0.00000000      -0.93575334
C       11.08972356       4.97984269       0.00000000      -0.00000000      -0.00000000      -0.93575334
C       13.55410656       4.97984269       0.00000000      -0.00000000      -0.00000000      -0.93575334
C        4.92876606       7.11406098       0.00000000      -0.00000000      -0.00000000      -0.93575334
C        7.39314906       7.11406098       0.00000000      -0.00000000      -0.00000000      -0.93575334
C        9.85753206       7.11406098       0.00000000      -0.00000000      -0.00000000      -0.93575334
C       12.32191506       7.11406098       0.00000000       0.00000000      -0.00000000      -0.93575334
C       14.78629806       7.11406098       0.00000000      -0.00000000      -0.00000000      -0.93575334
C        6.16095756       9.24827926       0.00000000      -0.00000000      -0.00000000      -0.93575334
C        8.62534056       9.24827926       0.00000000      -0.00000000      -0.00000000      -0.93575334
C       11.08972356       9.24827926       0.00000000      -0.00000000      -0.00000000      -0.93575334
C       13.55410656       9.24827926       0.00000000      -0.00000000      -0.00000000      -0.93575334
C       16.01848956       9.24827926       0.00000000      -0.00000000      -0.00000000      -0.93575334
C        0.00000000       0.00000000       2.60000000      -0.00000000       0.00000000       0.93575334
C        2.46438300       0.00000000       2.60000000       0.00000000       0.00000000       0.93575334
C        4.92876600       0.00000000       2.60000000       0.00000000       0.00000000       0.93575334
C        7.39314900       0.00000000       2.60000000      -0.00000000       0.00000000       0.93575334
C        9.85753200       0.00000000       2.60000000      -0.00000000       0.00000000       0.93575334
C        1.23219150       2.13421828       2.60000000       0.00000000       0.00000000       0.93575334
C        3.69657450       2.13421828       2.60000000      -0.00000000       0.00000000       0.93575334
C        6.16095750       2.13421828       2.60000000      -0.00000000       0.00000000       0.93575334
C        8.62534050       2.13421828       2.60000000       0.00000000       0.00000000       0.93575334
C       11.08972350       2.13421828       2.60000000       0.00000000       0.00000000       0.93575334
C        2.46438300       4.26843656       2.60000000       0.00000000       0.00000000       0.93575334
C        4.92876600       4.26843656       2.60000000       0.00000000      -0.00000000       0.93575334
C        7.39314900       4.26843656       2.60000000       0.00000000      -0.00000000       0.93575334
C        9.85753200       4.26843656       2.60000000       0.00000000       0.00000000       0.93575334
C       12.32191500       4.26843656       2.60000000      -0.00000000      -0.00000000       0.93575334
C        3.69657450       6.40265485       2.60000000      -0.00000000       0.00000000       0.93575334
C        6.16095750       6.40265485       2.60000000       0.00000000       0.00000000       0.93575334
C        8.62534050       6.40265485       2.60000000       0.00000000       0.00000000       0.93575334
C       11.08972350       6.40265485       2.60000000      -0.00000000       0.00000000       0.93575334
C       13.55410650       6.40265485       2.60000000      -0.00000000       0.00000000       0.93575334
C        4.92876600       8.53687313       2.60000000       0.00000000       0.00000000       0.93575334
C        7.39314900       8.53687313       2.60000000       0.00000000       0.00000000       0.93575334
C        9.85753200       8.53687313       2.60000000       0.00000000       0.00000000       0.93575334
C       12.32191500       8.53687313       2.60000000       0.00000000       0.00000000       0.93575334
C       14.78629800       8.53687313       2.60000000       0.00000000       0.00000000       0.93575334
C        1.23219156       0.71140613       2.60000000       0.00000000       0.00000000       0.93575334
C        3.69657456       0.71140613       2.60000000       0.00000000       0.00000000       0.93575334
C        6.16095756       0.71140613       2.60000000       0.00000000       0.00000000       0.93575334
C        8.62534056       0.71140613       2.60000000       0.00000000       0.00000000       0.93575334
C       11.08972356       0.71140613       2.60000000      -0.00000000       0.00000000       0.93575334
C        2.46438306       2.84562441       2.60000000      -0.00000000       0.00000000       0.93575334
C        4.92876606       2.84562441       2.60000000       0.00000000       0.00000000       0.93575334
C        7.39314906       2.84562441       2.60000000       0.00000000       0.00000000       0.93575334
C        9.85753206       2.84562441       2.60000000      -0.00000000       0.00000000       0.93575334
C       12.32191506       2.84562441       2.60000000       0.00000000       0.00000000       0.93575334
C        3.69657456       4.97984269       2.60000000       0.00000000       0.00000000       0.93575334
C        6.16095756       4.97984269       2.60000000       0.00000000       0.00000000       0.93575334
C        8.62534056       4.97984269       2.60000000       0.00000000       0.00000000       0.93575334
C       11.08972356       4.97984269       2.60000000       0.00000000       0.00000000       0.93575334
C       13.55410656       4.97984269       2.60000000       0.00000000       0.00000000       0.93575334
C        4.92876606       7.11406098       2.60000000      -0.00000000       0.00000000       0.93575334
C        7.39314906       7.11406098       2.60000000       0.00000000       0.00000000       0.93575334
C        9.85753206       7.11406098       2.60000000      -0.00000000       0.00000000       0.93575334
C       12.32191506       7.11406098       2.60000000       0.00000000       0.00000000       0.93575334
C       14.78629806       7.11406098       2.60000000       0.00000000       0.00000000       0.93575334
C        6.16095756       9.24827926       2.60000000      -0.00000000       0.00000000       0.93575334
C        8.62534056       9.24827926       2.60000000       0.00000000       0.00000000       0.93575334
C       11.08972356       9.24827926       2.60000000       0.00000000       0.00000000       0.93575334
C       13.55410656       9.24827926       2.60000000       0.00000000       0.00000000       0.93575334
C       16.01848956       9.24827926       2.60000000       0.00000000       0.00000000       0.93575334
100
Lattice="12.321915 0.0 0.0 6.1609575 10.67109141 0.0 0.0 0.0 20.0" Properties=species:S:1:pos:R:3:force:R:3 energy=-788.93851142 config_type=Graphite_Layer_Sep kpoints="2 2 1" kpoints_density="3.92292741 3.92292741 3.18369946" virial="-7.28839884 0.0 -0.0 0.0 -7.28839884 0.0 -0.0 0.0 101.37233711" cutoff=-1.0 nneightol=1.2 pbc="T T T"
C        0.00000000       0.00000000       0.00000000      -0.00000000       0.00000000      -0.75616635
C        2.46438300       0.00000000       0.00000000       0.00000000       0.00000000      -0.75616635
C        4.92876600       0.00000000       0.00000000       0.00000000       0.00000000      -0.75616635
C        7.39314900       0.00000000       0.00000000       0.00000000       0.00000000      -0.75616635
C        9.85753200       0.00000000       0.00000000       0.00000000       0.00000000      -0.75616635
C        1.23219150       2.13421828       0.00000000       0.00000000      -0.00000000      -0.75616635
C        3.69657450       2.13421828       0.00000000      -0.00000000       0.00000000      -0.75616635
C        6.16095750       2.13421828       0.00000000      -0.00000000       0.00000000      -0.75616635
C        8.62534050       2.13421828       0.00000000      -0.00000000       0.00000000      -0.75616635
C       11.08972350       2.13421828       0.00000000      -0.00000000       0.00000000      -0.75616635
C        2.46438300       4.26843656       0.00000000      -0.00000000       0.00000000      -0.75616635
C        4.92876600       4.26843656       0.00000000      -0.00000000       0.00000000      -0.75616635
C        7.39314900       4.26843656       0.00000000      -0.00000000       0.00000000      -0.75616635
C        9.85753200       4.26843656       0.00000000      -0.00000000      -0.00000000      -0.75616635
C       12.32191500       4.26843656       0.00000000      -0.00000000      -0.00000000      -0.75616635
C        3.69657450       6.40265485       0.00000000       0.00000000       0.00000000      -0.75616635
C        6.16095750       6.40265485       0.00000000      -0.00000000      -0.00000000      -0.75616635
C        8.62534050       6.40265485       0.00000000       0.00000000       0.00000000      -0.75616635
C       11.08972350       6.40265485       0.00000000       0.00000000       0.00000000      -0.75616635
C       13.55410650       6.40265485       0.00000000       0.00000000       0.00000000      -0.75616635
C        4.92876600       8.53687313       0.00000000       0.00000000      -0.00000000      -0.75616635
C        7.39314900       8.53687313       0.00000000       0.00000000       0.00000000      -0.75616635
C        9.85753200       8.53687313       0.00000000       0.00000000       0.00000000      -0.75616635
C       12.32191500       8.53687313       0.00000000      -0.00000000       0.00000000      -0.75616635
C       14.78629800       8.53687313       0.00000000       0.00000000       0.00000000      -0.75616635
C        1.23219156       0.71140613       0.00000000      -0.00000000      -0.00000000      -0.75616635
C        3.69657456       0.71140613       0.00000000      -0.00000000      -0.00000000      -0.75616635
C        6.16095756       0.71140613       0.00000000      -0.00000000       0.00000000      -0.75616635
C        8.62534056       0.71140613       0.00000000       0.00000000       0.00000000      -0.75616635
C       11.08972356       0.71140613       0.00000000       0.00000000      -0.00000000      -0.75616635
C        2.46438306       2.84562441       0.00000000      -0.00000000      -0.00000000      -0.75616635
C        4.92876606       2.84562441       0.00000000       0.00000000       0.00000000      -0.75616635
C        7.39314906       2.84562441       0.00000000       0.00000000      -0.00000000      -0.75616635
C        9.85753206       2.84562441       0.00000000       0.00000000      -0.00000000      -0.75616635
C       12.32191506       2.84562441       0.00000000       0.00000000      -0.00000000      -0.75616635
C        3.69657456       4.97984269       0.00000000      -0.00000000       0.00000000      -0.75616635
C        6.16095756       4.97984269       0.00000000       0.00000000       0.00000000      -0.75616635
C        8.62534056       4.97984269       0.00000000       0.00000000      -0.00000000      -0.75616635
C       11.08972356       4.97984269       0.00000000      -0.00000000      -0.00000000      -0.75616635
C       13.55410656       4.97984269       0.00000000      -0.00000000      -0.00000000      -0.75616635
C        4.92876606       7.11406098       0.00000000      -0.00000000       0.00000000      -0.75616635
C        7.39314906       7.11406098       0.00000000       0.00000000      -0.00000000      -0.75616635
C        9.85753206       7.11406098       0.00000000      -0.00000000      -0.00000000      -0.75616635
C       12.32191506       7.11406098       0.00000000      -0.00000000      -0.00000000      -0.75616635
C       14.78629806       7.11406098       0.00000000      -0.00000000       0.00000000      -0.75616635
C        6.16095756       9.24827926       0.00000000       0.00000000      -0.00000000      -0.75616635
C        8.62534056       9.24827926       0.00000000      -0.00000000      -0.00000000      -0.75616635
C       11.08972356       9.24827926       0.00000000      -0.00000000      -0.00000000      -0.75616635
C       13.55410656       9.24827926       0.00000000      -0.00000000      -0.00000000      -0.75616635
C       16.01848956       9.24827926       0.00000000       0.00000000       0.00000000      -0.75616635
C        0.00000000       0.00000000       2.70000000       0.00000000      -0.00000000       0.75616635
C        2.46438300       0.00000000       2.70000000       0.00000000       0.00000000       0.75616635
C        4.92876600       0.00000000       2.70000000       0.00000000       0.00000000       0.75616635
C        7.39314900       0.00000000       2.70000000       0.00000000       0.00000000       0.75616635
C        9.85753200       0.00000000       2.70000000       0.00000000       0.00000000       0.75616635
C        1.23219150       2.13421828       2.70000000       0.00000000      -0.00000000       0.75616635
C        3.69657450       2.13421828       2.70000000       0.00000000       0.00000000       0.75616635
C        6.16095750       2.13421828       2.70000000       0.00000000       0.00000000       0.75616635
C        8.62534050       2.13421828       2.70000000       0.00000000       0.00000000       0.75616635
C       11.08972350       2.13421828       2.70000000       0.00000000       0.00000000       0.75616635
C        2.46438300       4.26843656       2.70000000      -0.00000000       0.00000000       0.75616635
C        4.92876600       4.26843656       2.70000000       0.00000000       0.00000000       0.75616635
C        7.39314900       4.26843656       2.70000000       0.00000000       0.00000000       0.75616635
C        9.85753200       4.26843656       2.70000000       0.00000000       0.00000000       0.75616635
C       12.32191500       4.26843656       2.70000000       0.00000000       0.00000000       0.75616635
C        3.69657450       6.40265485       2.70000000       0.00000000       0.00000000       0.75616635
C        6.16095750       6.40265485       2.70000000       0.00000000      -0.00000000       0.75616635
C        8.62534050       6.40265485       2.70000000       0.00000000       0.00000000       0.75616635
C       11.08972350       6.40265485       2.70000000       0.00000000       0.00000000       0.75616635
C       13.55410650       6.40265485       2.70000000       0.00000000       0.00000000       0.75616635
C        4.92876600       8.53687313       2.70000000       0.00000000       0.00000000       0.75616635
C        7.39314900       8.53687313       2.70000000       0.00000000       0.00000000       0.75616635
C        9.85753200       8.53687313       2.70000000       0.00000000       0.00000000       0.75616635
C       12.32191500       8.53687313       2.70000000       0.00000000       0.00000000       0.75616635
C       14.78629800       8.53687313       2.70000000       0.00000000       0.00000000       0.75616635